<?xml version="1.0" encoding="UTF-8"?>

<!-- generated on Wednesday 23 September 2020 01:38:08 PM by Eclipse SUMO GUI Version 1.4.0
<configuration xmlns:xsi="http://www.w3.org/2001/XMLSchema-instance" xsi:noNamespaceSchemaLocation="http://sumo.dlr.de/xsd/sumoConfiguration.xsd">

    <input>
        <net-file value="data/cross.net.xml"/>
        <route-files value="data/cross.rou.xml"/>
        <additional-files value="data/cross.add.xml"/>
    </input>

    <output>
        <summary-output value="C:\Program%20Files%20(x86)\Eclipse\Sumo\doc\tutorial\traci_tls\data\summary.xml"/>
        <tripinfo-output value="tripinfo.xml"/>
    </output>

    <time>
        <begin value="0"/>
    </time>

    <report>
        <verbose value="true"/>
        <no-step-log value="true"/>
    </report>

    <gui_only>
        <start value="true"/>
    </gui_only>

</configuration>
-->

<tripinfos xmlns:xsi="http://www.w3.org/2001/XMLSchema-instance" xsi:noNamespaceSchemaLocation="http://sumo.dlr.de/xsd/tripinfo_file.xsd">
    <tripinfo id="11260545" depart="2.00" departLane="3o_1" departPos="458.00" departSpeed="0.00" departDelay="0.00" arrival="38.00" arrivalLane="4i_1" arrivalPos="489.60" arrivalSpeed="17.85" duration="36.00" routeLength="541.85" waitingTime="0.00" waitingCount="0" stopTime="0.00" timeLoss="6.85" rerouteNo="0" devices="tripinfo_11260545" vType="sedan1" speedFactor="1.36" vaporized=""/>
    <tripinfo id="11220545" depart="3.00" departLane="3o_1" departPos="478.00" departSpeed="0.00" departDelay="1.00" arrival="43.00" arrivalLane="2i_0" arrivalPos="489.60" arrivalSpeed="13.86" duration="40.00" routeLength="523.04" waitingTime="0.00" waitingCount="0" stopTime="0.00" timeLoss="4.67" rerouteNo="0" devices="tripinfo_11220545" vType="car" speedFactor="1.08" vaporized=""/>
    <tripinfo id="112120545" depart="5.00" departLane="3o_0" departPos="428.00" departSpeed="0.00" departDelay="3.00" arrival="45.00" arrivalLane="4i_1" arrivalPos="489.60" arrivalSpeed="16.67" duration="40.00" routeLength="571.85" waitingTime="0.00" waitingCount="0" stopTime="0.00" timeLoss="6.40" rerouteNo="0" devices="tripinfo_112120545" vType="car2" speedFactor="1.25" vaporized=""/>
    <tripinfo id="11210545" depart="2.00" departLane="3o_0" departPos="483.00" departSpeed="0.00" departDelay="0.00" arrival="46.00" arrivalLane="4i_0" arrivalPos="489.60" arrivalSpeed="12.39" duration="44.00" routeLength="516.85" waitingTime="0.00" waitingCount="0" stopTime="0.00" timeLoss="3.99" rerouteNo="0" devices="tripinfo_11210545" vType="sedan1" speedFactor="0.93" vaporized=""/>
    <tripinfo id="11240545" depart="8.00" departLane="3o_0" departPos="468.00" departSpeed="0.00" departDelay="6.00" arrival="48.00" arrivalLane="1i_1" arrivalPos="489.45" arrivalSpeed="15.23" duration="40.00" routeLength="519.93" waitingTime="0.00" waitingCount="0" stopTime="0.00" timeLoss="6.15" rerouteNo="0" devices="tripinfo_11240545" vType="sedan2" speedFactor="1.14" vaporized=""/>
    <tripinfo id="11270545" depart="4.00" departLane="3o_0" departPos="453.00" departSpeed="0.00" departDelay="2.00" arrival="50.00" arrivalLane="2i_0" arrivalPos="489.60" arrivalSpeed="13.99" duration="46.00" routeLength="548.04" waitingTime="0.00" waitingCount="0" stopTime="0.00" timeLoss="6.53" rerouteNo="0" devices="tripinfo_11270545" vType="car3" speedFactor="1.01" vaporized=""/>
    <tripinfo id="11230545" depart="3.00" departLane="3o_0" departPos="473.00" departSpeed="0.00" departDelay="1.00" arrival="52.00" arrivalLane="1i_0" arrivalPos="489.45" arrivalSpeed="11.50" duration="49.00" routeLength="514.93" waitingTime="0.00" waitingCount="0" stopTime="0.00" timeLoss="5.84" rerouteNo="0" devices="tripinfo_11230545" vType="car" speedFactor="0.88" vaporized=""/>
    <tripinfo id="11200545" depart="2.00" departLane="3o_1" departPos="488.00" departSpeed="0.00" departDelay="0.00" arrival="54.00" arrivalLane="4i_0" arrivalPos="489.60" arrivalSpeed="10.07" duration="52.00" routeLength="511.85" waitingTime="0.00" waitingCount="0" stopTime="0.00" timeLoss="4.36" rerouteNo="0" devices="tripinfo_11200545" vType="car3" speedFactor="0.77" vaporized=""/>
    <tripinfo id="11810545" depart="2.00" departLane="4o_0" departPos="483.00" departSpeed="0.00" departDelay="0.00" arrival="54.00" arrivalLane="2i_0" arrivalPos="489.60" arrivalSpeed="13.69" duration="52.00" routeLength="505.23" waitingTime="9.00" waitingCount="1" stopTime="0.00" timeLoss="16.84" rerouteNo="0" devices="tripinfo_11810545" vType="car1" speedFactor="1.07" vaporized=""/>
    <tripinfo id="11800545" depart="2.00" departLane="4o_1" departPos="488.00" departSpeed="0.00" departDelay="0.00" arrival="55.00" arrivalLane="2i_1" arrivalPos="489.60" arrivalSpeed="15.23" duration="53.00" routeLength="500.23" waitingTime="14.00" waitingCount="1" stopTime="0.00" timeLoss="19.22" rerouteNo="0" devices="tripinfo_11800545" vType="sedan3" speedFactor="1.10" vaporized=""/>
    <tripinfo id="11830545" depart="2.00" departLane="4o_0" departPos="473.00" departSpeed="0.00" departDelay="0.00" arrival="55.00" arrivalLane="3i_0" arrivalPos="489.45" arrivalSpeed="16.40" duration="53.00" routeLength="526.85" waitingTime="11.00" waitingCount="1" stopTime="0.00" timeLoss="21.16" rerouteNo="0" devices="tripinfo_11830545" vType="sedan" speedFactor="1.20" vaporized=""/>
    <tripinfo id="11250545" depart="4.00" departLane="3o_0" departPos="463.00" departSpeed="0.00" departDelay="2.00" arrival="56.00" arrivalLane="1i_0" arrivalPos="489.45" arrivalSpeed="11.03" duration="52.00" routeLength="524.93" waitingTime="0.00" waitingCount="0" stopTime="0.00" timeLoss="5.78" rerouteNo="0" devices="tripinfo_11250545" vType="car2" speedFactor="0.84" vaporized=""/>
    <tripinfo id="11290545" depart="4.00" departLane="3o_0" departPos="443.00" departSpeed="0.00" departDelay="2.00" arrival="57.00" arrivalLane="4i_0" arrivalPos="489.60" arrivalSpeed="13.33" duration="53.00" routeLength="556.85" waitingTime="1.00" waitingCount="1" stopTime="0.00" timeLoss="11.87" rerouteNo="0" devices="tripinfo_11290545" vType="sedan3" speedFactor="0.99" vaporized=""/>
    <tripinfo id="112190545" depart="10.00" departLane="3o_0" departPos="393.00" departSpeed="0.00" departDelay="8.00" arrival="63.00" arrivalLane="1i_1" arrivalPos="489.45" arrivalSpeed="14.68" duration="53.00" routeLength="594.93" waitingTime="0.00" waitingCount="0" stopTime="0.00" timeLoss="14.25" rerouteNo="0" devices="tripinfo_112190545" vType="sedan2" speedFactor="1.12" vaporized=""/>
    <tripinfo id="11280545" depart="3.00" departLane="3o_1" departPos="448.00" departSpeed="0.00" departDelay="1.00" arrival="64.00" arrivalLane="1i_0" arrivalPos="489.45" arrivalSpeed="10.82" duration="61.00" routeLength="539.93" waitingTime="1.00" waitingCount="1" stopTime="0.00" timeLoss="11.82" rerouteNo="0" devices="tripinfo_11280545" vType="car1" speedFactor="0.82" vaporized=""/>
    <tripinfo id="112130545" depart="10.00" departLane="3o_0" departPos="423.00" departSpeed="0.00" departDelay="8.00" arrival="64.00" arrivalLane="4i_0" arrivalPos="489.60" arrivalSpeed="12.79" duration="54.00" routeLength="576.85" waitingTime="0.00" waitingCount="0" stopTime="0.00" timeLoss="9.82" rerouteNo="0" devices="tripinfo_112130545" vType="sedan3" speedFactor="0.94" vaporized=""/>
    <tripinfo id="112160545" depart="10.00" departLane="3o_0" departPos="408.00" departSpeed="0.00" departDelay="8.00" arrival="66.00" arrivalLane="4i_1" arrivalPos="489.60" arrivalSpeed="13.23" duration="56.00" routeLength="591.85" waitingTime="0.00" waitingCount="0" stopTime="0.00" timeLoss="11.09" rerouteNo="0" devices="tripinfo_112160545" vType="sedan3" speedFactor="0.97" vaporized=""/>
    <tripinfo id="11840545" depart="2.00" departLane="4o_1" departPos="468.00" departSpeed="0.00" departDelay="0.00" arrival="67.00" arrivalLane="2i_0" arrivalPos="489.60" arrivalSpeed="12.07" duration="65.00" routeLength="520.23" waitingTime="10.00" waitingCount="1" stopTime="0.00" timeLoss="23.01" rerouteNo="0" devices="tripinfo_11840545" vType="sedan2" speedFactor="0.93" vaporized=""/>
    <tripinfo id="11860545" depart="4.00" departLane="4o_0" departPos="458.00" departSpeed="0.00" departDelay="2.00" arrival="67.00" arrivalLane="3i_0" arrivalPos="489.45" arrivalSpeed="13.48" duration="63.00" routeLength="541.85" waitingTime="10.00" waitingCount="2" stopTime="0.00" timeLoss="24.48" rerouteNo="0" devices="tripinfo_11860545" vType="car1" speedFactor="1.03" vaporized=""/>
    <tripinfo id="11850545" depart="3.00" departLane="4o_0" departPos="463.00" departSpeed="0.00" departDelay="1.00" arrival="68.00" arrivalLane="2i_1" arrivalPos="489.60" arrivalSpeed="12.35" duration="65.00" routeLength="525.23" waitingTime="11.00" waitingCount="2" stopTime="0.00" timeLoss="23.70" rerouteNo="0" devices="tripinfo_11850545" vType="car3" speedFactor="0.94" vaporized=""/>
    <tripinfo id="118110545" depart="7.00" departLane="4o_0" departPos="433.00" departSpeed="0.00" departDelay="5.00" arrival="68.00" arrivalLane="3i_1" arrivalPos="489.45" arrivalSpeed="15.59" duration="61.00" routeLength="566.85" waitingTime="8.00" waitingCount="1" stopTime="0.00" timeLoss="24.55" rerouteNo="0" devices="tripinfo_118110545" vType="sedan3" speedFactor="1.13" vaporized=""/>
    <tripinfo id="11820545" depart="2.00" departLane="4o_1" departPos="478.00" departSpeed="0.00" departDelay="0.00" arrival="70.00" arrivalLane="1i_1" arrivalPos="489.45" arrivalSpeed="18.55" duration="68.00" routeLength="523.04" waitingTime="27.00" waitingCount="2" stopTime="0.00" timeLoss="39.06" rerouteNo="0" devices="tripinfo_11820545" vType="car" speedFactor="1.34" vaporized=""/>
    <tripinfo id="112100545" depart="7.00" departLane="3o_0" departPos="438.00" departSpeed="0.00" departDelay="5.00" arrival="71.00" arrivalLane="4i_0" arrivalPos="489.60" arrivalSpeed="9.96" duration="64.00" routeLength="561.85" waitingTime="0.00" waitingCount="0" stopTime="0.00" timeLoss="10.47" rerouteNo="0" devices="tripinfo_112100545" vType="sedan2" speedFactor="0.76" vaporized=""/>
    <tripinfo id="118220545" depart="5.00" departLane="4o_0" departPos="378.00" departSpeed="0.00" departDelay="3.00" arrival="72.00" arrivalLane="2i_1" arrivalPos="489.60" arrivalSpeed="17.38" duration="67.00" routeLength="610.23" waitingTime="6.00" waitingCount="1" stopTime="0.00" timeLoss="31.45" rerouteNo="0" devices="tripinfo_118220545" vType="sedan3" speedFactor="1.26" vaporized=""/>
    <tripinfo id="1010545" depart="3.00" departLane="1o_0" departPos="483.00" departSpeed="0.00" departDelay="1.00" arrival="75.00" arrivalLane="4i_0" arrivalPos="489.60" arrivalSpeed="15.93" duration="72.00" routeLength="505.08" waitingTime="31.00" waitingCount="1" stopTime="0.00" timeLoss="40.16" rerouteNo="0" devices="tripinfo_1010545" vType="sedan3" speedFactor="1.17" vaporized=""/>
    <tripinfo id="112280545" depart="11.00" departLane="3o_0" departPos="348.00" departSpeed="0.00" departDelay="9.00" arrival="75.00" arrivalLane="4i_1" arrivalPos="489.60" arrivalSpeed="11.63" duration="64.00" routeLength="651.85" waitingTime="0.00" waitingCount="0" stopTime="0.00" timeLoss="10.30" rerouteNo="0" devices="tripinfo_112280545" vType="car" speedFactor="0.88" vaporized=""/>
    <tripinfo id="11870545" depart="3.00" departLane="4o_1" departPos="453.00" departSpeed="0.00" departDelay="1.00" arrival="76.00" arrivalLane="3i_0" arrivalPos="489.45" arrivalSpeed="15.14" duration="73.00" routeLength="546.85" waitingTime="24.00" waitingCount="2" stopTime="0.00" timeLoss="38.14" rerouteNo="0" devices="tripinfo_11870545" vType="car3" speedFactor="1.14" vaporized=""/>
    <tripinfo id="118120545" depart="18.00" departLane="4o_0" departPos="428.00" departSpeed="0.00" departDelay="16.00" arrival="77.00" arrivalLane="3i_1" arrivalPos="489.45" arrivalSpeed="16.07" duration="59.00" routeLength="571.85" waitingTime="7.00" waitingCount="1" stopTime="0.00" timeLoss="24.03" rerouteNo="0" devices="tripinfo_118120545" vType="car" speedFactor="1.18" vaporized=""/>
    <tripinfo id="118100545" depart="2.00" departLane="4o_0" departPos="438.00" departSpeed="0.00" departDelay="0.00" arrival="78.00" arrivalLane="2i_0" arrivalPos="489.60" arrivalSpeed="10.50" duration="76.00" routeLength="550.23" waitingTime="8.00" waitingCount="1" stopTime="0.00" timeLoss="27.89" rerouteNo="0" devices="tripinfo_118100545" vType="sedan2" speedFactor="0.85" vaporized=""/>
    <tripinfo id="118130545" depart="3.00" departLane="4o_1" departPos="423.00" departSpeed="0.00" departDelay="1.00" arrival="79.00" arrivalLane="3i_1" arrivalPos="489.45" arrivalSpeed="16.42" duration="76.00" routeLength="576.85" waitingTime="22.00" waitingCount="2" stopTime="0.00" timeLoss="41.18" rerouteNo="0" devices="tripinfo_118130545" vType="sedan3" speedFactor="1.22" vaporized=""/>
    <tripinfo id="112290545" depart="13.00" departLane="3o_0" departPos="343.00" departSpeed="0.00" departDelay="11.00" arrival="80.00" arrivalLane="1i_0" arrivalPos="489.45" arrivalSpeed="10.84" duration="67.00" routeLength="644.93" waitingTime="0.00" waitingCount="0" stopTime="0.00" timeLoss="9.19" rerouteNo="0" devices="tripinfo_112290545" vType="car2" speedFactor="0.82" vaporized=""/>
    <tripinfo id="118150545" depart="3.00" departLane="4o_1" departPos="413.00" departSpeed="0.00" departDelay="1.00" arrival="83.00" arrivalLane="3i_0" arrivalPos="489.45" arrivalSpeed="14.68" duration="80.00" routeLength="586.85" waitingTime="20.00" waitingCount="2" stopTime="0.00" timeLoss="40.77" rerouteNo="0" devices="tripinfo_118150545" vType="sedan1" speedFactor="1.08" vaporized=""/>
    <tripinfo id="118180545" depart="3.00" departLane="4o_1" departPos="398.00" departSpeed="0.00" departDelay="1.00" arrival="84.00" arrivalLane="3i_1" arrivalPos="489.45" arrivalSpeed="17.43" duration="81.00" routeLength="601.85" waitingTime="20.00" waitingCount="2" stopTime="0.00" timeLoss="46.87" rerouteNo="0" devices="tripinfo_118180545" vType="car2" speedFactor="1.28" vaporized=""/>
    <tripinfo id="112110545" depart="8.00" departLane="3o_0" departPos="433.00" departSpeed="0.00" departDelay="6.00" arrival="85.00" arrivalLane="4i_0" arrivalPos="489.60" arrivalSpeed="8.11" duration="77.00" routeLength="566.85" waitingTime="0.00" waitingCount="0" stopTime="0.00" timeLoss="10.04" rerouteNo="0" devices="tripinfo_112110545" vType="sedan1" speedFactor="0.61" vaporized=""/>
    <tripinfo id="118170545" depart="5.00" departLane="4o_0" departPos="403.00" departSpeed="0.00" departDelay="3.00" arrival="86.00" arrivalLane="3i_1" arrivalPos="489.45" arrivalSpeed="17.71" duration="81.00" routeLength="596.85" waitingTime="20.00" waitingCount="2" stopTime="0.00" timeLoss="47.22" rerouteNo="0" devices="tripinfo_118170545" vType="car2" speedFactor="1.30" vaporized=""/>
    <tripinfo id="118200545" depart="5.00" departLane="4o_0" departPos="388.00" departSpeed="0.00" departDelay="3.00" arrival="87.00" arrivalLane="2i_0" arrivalPos="489.60" arrivalSpeed="10.75" duration="82.00" routeLength="600.23" waitingTime="7.00" waitingCount="1" stopTime="0.00" timeLoss="25.57" rerouteNo="0" devices="tripinfo_118200545" vType="car2" speedFactor="0.78" vaporized=""/>
    <tripinfo id="118210545" depart="18.00" departLane="4o_0" departPos="383.00" departSpeed="0.00" departDelay="16.00" arrival="87.00" arrivalLane="3i_1" arrivalPos="489.45" arrivalSpeed="17.22" duration="69.00" routeLength="616.85" waitingTime="4.00" waitingCount="1" stopTime="0.00" timeLoss="33.34" rerouteNo="0" devices="tripinfo_118210545" vType="car1" speedFactor="1.26" vaporized=""/>
    <tripinfo id="11880545" depart="40.00" departLane="4o_0" departPos="448.00" departSpeed="0.00" departDelay="38.00" arrival="90.00" arrivalLane="3i_1" arrivalPos="489.45" arrivalSpeed="13.47" duration="50.00" routeLength="551.85" waitingTime="0.00" waitingCount="0" stopTime="0.00" timeLoss="10.18" rerouteNo="0" devices="tripinfo_11880545" vType="sedan2" speedFactor="1.00" vaporized=""/>
    <tripinfo id="118190545" depart="10.00" departLane="4o_1" departPos="393.00" departSpeed="0.00" departDelay="8.00" arrival="91.00" arrivalLane="1i_1" arrivalPos="489.45" arrivalSpeed="14.64" duration="81.00" routeLength="608.04" waitingTime="19.00" waitingCount="2" stopTime="0.00" timeLoss="39.82" rerouteNo="0" devices="tripinfo_118190545" vType="sedan1" speedFactor="1.08" vaporized=""/>
    <tripinfo id="118140545" depart="5.00" departLane="4o_0" departPos="418.00" departSpeed="0.00" departDelay="3.00" arrival="92.00" arrivalLane="3i_0" arrivalPos="489.45" arrivalSpeed="8.47" duration="87.00" routeLength="581.85" waitingTime="7.00" waitingCount="1" stopTime="0.00" timeLoss="26.92" rerouteNo="0" devices="tripinfo_118140545" vType="car" speedFactor="0.70" vaporized=""/>
    <tripinfo id="11890545" depart="3.00" departLane="4o_1" departPos="443.00" departSpeed="0.00" departDelay="1.00" arrival="93.00" arrivalLane="1i_0" arrivalPos="489.45" arrivalSpeed="10.45" duration="90.00" routeLength="558.04" waitingTime="23.00" waitingCount="2" stopTime="0.00" timeLoss="39.63" rerouteNo="0" devices="tripinfo_11890545" vType="sedan2" speedFactor="0.82" vaporized=""/>
    <tripinfo id="118160545" depart="10.00" departLane="4o_1" departPos="408.00" departSpeed="0.00" departDelay="8.00" arrival="93.00" arrivalLane="3i_1" arrivalPos="489.45" arrivalSpeed="12.29" duration="83.00" routeLength="591.85" waitingTime="19.00" waitingCount="2" stopTime="0.00" timeLoss="37.97" rerouteNo="0" devices="tripinfo_118160545" vType="car3" speedFactor="0.95" vaporized=""/>
    <tripinfo id="118250545" depart="15.00" departLane="4o_1" departPos="363.00" departSpeed="0.00" departDelay="13.00" arrival="96.00" arrivalLane="3i_1" arrivalPos="489.45" arrivalSpeed="12.35" duration="81.00" routeLength="636.85" waitingTime="6.00" waitingCount="2" stopTime="0.00" timeLoss="31.82" rerouteNo="0" devices="tripinfo_118250545" vType="sedan" speedFactor="0.95" vaporized=""/>
    <tripinfo id="118260545" depart="10.00" departLane="4o_1" departPos="358.00" departSpeed="0.00" departDelay="8.00" arrival="96.00" arrivalLane="3i_0" arrivalPos="489.45" arrivalSpeed="11.54" duration="86.00" routeLength="641.85" waitingTime="11.00" waitingCount="2" stopTime="0.00" timeLoss="34.11" rerouteNo="0" devices="tripinfo_118260545" vType="car3" speedFactor="0.90" vaporized=""/>
    <tripinfo id="118270545" depart="21.00" departLane="4o_0" departPos="353.00" departSpeed="0.00" departDelay="19.00" arrival="99.00" arrivalLane="3i_1" arrivalPos="489.45" arrivalSpeed="16.52" duration="78.00" routeLength="646.85" waitingTime="5.00" waitingCount="2" stopTime="0.00" timeLoss="39.53" rerouteNo="0" devices="tripinfo_118270545" vType="car1" speedFactor="1.22" vaporized=""/>
    <tripinfo id="118230545" depart="15.00" departLane="4o_1" departPos="373.00" departSpeed="0.00" departDelay="13.00" arrival="100.00" arrivalLane="1i_0" arrivalPos="489.45" arrivalSpeed="12.19" duration="85.00" routeLength="628.04" waitingTime="10.00" waitingCount="3" stopTime="0.00" timeLoss="35.58" rerouteNo="0" devices="tripinfo_118230545" vType="car3" speedFactor="0.94" vaporized=""/>
    <tripinfo id="121123442" depart="57.00" departLane="4o_1" departPos="480.90" departSpeed="0.00" departDelay="55.00" arrival="103.00" arrivalLane="3i_0" arrivalPos="489.45" arrivalSpeed="13.42" duration="46.00" routeLength="518.95" waitingTime="0.00" waitingCount="0" stopTime="0.00" timeLoss="7.34" rerouteNo="0" devices="tripinfo_121123442" vType="truck3" speedFactor="0.99" vaporized=""/>
    <tripinfo id="121023442" depart="55.00" departLane="4o_0" departPos="488.00" departSpeed="0.00" departDelay="53.00" arrival="106.00" arrivalLane="1i_0" arrivalPos="489.45" arrivalSpeed="14.05" duration="51.00" routeLength="513.04" waitingTime="6.00" waitingCount="1" stopTime="0.00" timeLoss="14.73" rerouteNo="0" devices="tripinfo_121023442" vType="truck" speedFactor="1.04" vaporized=""/>
    <tripinfo id="121423442" depart="57.00" departLane="4o_0" departPos="459.60" departSpeed="0.00" departDelay="55.00" arrival="108.00" arrivalLane="1i_1" arrivalPos="489.45" arrivalSpeed="14.77" duration="51.00" routeLength="541.44" waitingTime="0.00" waitingCount="0" stopTime="0.00" timeLoss="13.02" rerouteNo="0" devices="tripinfo_121423442" vType="truck3" speedFactor="1.06" vaporized=""/>
    <tripinfo id="121223442" depart="66.00" departLane="4o_1" departPos="473.80" departSpeed="0.00" departDelay="64.00" arrival="109.00" arrivalLane="1i_0" arrivalPos="489.45" arrivalSpeed="14.67" duration="43.00" routeLength="527.24" waitingTime="0.00" waitingCount="0" stopTime="0.00" timeLoss="6.74" rerouteNo="0" devices="tripinfo_121223442" vType="truck2" speedFactor="1.07" vaporized=""/>
    <tripinfo id="141800545" depart="75.00" departLane="4o_0" departPos="488.00" departSpeed="0.00" departDelay="60.00" arrival="111.00" arrivalLane="3i_0" arrivalPos="489.45" arrivalSpeed="15.58" duration="36.00" routeLength="511.85" waitingTime="0.00" waitingCount="0" stopTime="0.00" timeLoss="5.29" rerouteNo="0" devices="tripinfo_141800545" vType="sedan" speedFactor="1.21" vaporized=""/>
    <tripinfo id="141860545" depart="67.00" departLane="4o_0" departPos="458.00" departSpeed="0.00" departDelay="52.00" arrival="112.00" arrivalLane="2i_1" arrivalPos="489.60" arrivalSpeed="14.27" duration="45.00" routeLength="530.23" waitingTime="0.00" waitingCount="0" stopTime="0.00" timeLoss="6.55" rerouteNo="0" devices="tripinfo_141860545" vType="sedan" speedFactor="1.04" vaporized=""/>
    <tripinfo id="1020545" depart="6.00" departLane="1o_0" departPos="478.00" departSpeed="0.00" departDelay="4.00" arrival="115.00" arrivalLane="2i_1" arrivalPos="489.60" arrivalSpeed="18.55" duration="109.00" routeLength="521.85" waitingTime="70.00" waitingCount="2" stopTime="0.00" timeLoss="81.28" rerouteNo="0" devices="tripinfo_1020545" vType="car3" speedFactor="1.40" vaporized=""/>
    <tripinfo id="141820545" depart="75.00" departLane="4o_0" departPos="478.00" departSpeed="0.00" departDelay="60.00" arrival="117.00" arrivalLane="3i_0" arrivalPos="489.45" arrivalSpeed="14.22" duration="42.00" routeLength="521.85" waitingTime="0.00" waitingCount="0" stopTime="0.00" timeLoss="5.79" rerouteNo="0" devices="tripinfo_141820545" vType="sedan" speedFactor="1.06" vaporized=""/>
    <tripinfo id="1090545" depart="4.00" departLane="1o_0" departPos="443.00" departSpeed="0.00" departDelay="2.00" arrival="121.00" arrivalLane="4i_1" arrivalPos="489.60" arrivalSpeed="16.56" duration="117.00" routeLength="545.08" waitingTime="69.00" waitingCount="2" stopTime="0.00" timeLoss="84.67" rerouteNo="0" devices="tripinfo_1090545" vType="sedan2" speedFactor="1.25" vaporized=""/>
    <tripinfo id="1040545" depart="6.00" departLane="1o_0" departPos="468.00" departSpeed="0.00" departDelay="4.00" arrival="122.00" arrivalLane="4i_0" arrivalPos="489.60" arrivalSpeed="16.04" duration="116.00" routeLength="520.08" waitingTime="69.00" waitingCount="2" stopTime="0.00" timeLoss="82.29" rerouteNo="0" devices="tripinfo_1040545" vType="sedan" speedFactor="1.16" vaporized=""/>
    <tripinfo id="118240545" depart="12.00" departLane="4o_0" departPos="368.00" departSpeed="0.00" departDelay="10.00" arrival="122.00" arrivalLane="2i_0" arrivalPos="489.60" arrivalSpeed="7.24" duration="110.00" routeLength="620.23" waitingTime="4.00" waitingCount="1" stopTime="0.00" timeLoss="22.16" rerouteNo="0" devices="tripinfo_118240545" vType="sedan1" speedFactor="0.52" vaporized=""/>
    <tripinfo id="1030545" depart="2.00" departLane="1o_1" departPos="473.00" departSpeed="0.00" departDelay="0.00" arrival="124.00" arrivalLane="2i_1" arrivalPos="489.60" arrivalSpeed="14.79" duration="122.00" routeLength="526.85" waitingTime="78.00" waitingCount="1" stopTime="0.00" timeLoss="86.38" rerouteNo="0" devices="tripinfo_1030545" vType="sedan2" speedFactor="1.09" vaporized=""/>
    <tripinfo id="121323442" depart="55.00" departLane="4o_1" departPos="466.70" departSpeed="0.00" departDelay="53.00" arrival="124.00" arrivalLane="2i_0" arrivalPos="489.60" arrivalSpeed="9.42" duration="69.00" routeLength="521.53" waitingTime="2.00" waitingCount="1" stopTime="0.00" timeLoss="14.20" rerouteNo="0" devices="tripinfo_121323442" vType="truck" speedFactor="0.71" vaporized=""/>
    <tripinfo id="1000545" depart="2.00" departLane="1o_0" departPos="488.00" departSpeed="0.00" departDelay="0.00" arrival="126.00" arrivalLane="3i_0" arrivalPos="489.45" arrivalSpeed="12.79" duration="124.00" routeLength="512.89" waitingTime="80.00" waitingCount="1" stopTime="0.00" timeLoss="84.61" rerouteNo="0" devices="tripinfo_1000545" vType="sedan1" speedFactor="0.95" vaporized=""/>
    <tripinfo id="1070545" depart="4.00" departLane="1o_0" departPos="453.00" departSpeed="0.00" departDelay="2.00" arrival="126.00" arrivalLane="3i_1" arrivalPos="489.45" arrivalSpeed="16.12" duration="122.00" routeLength="547.89" waitingTime="75.00" waitingCount="1" stopTime="0.00" timeLoss="87.32" rerouteNo="0" devices="tripinfo_1070545" vType="car3" speedFactor="1.18" vaporized=""/>
    <tripinfo id="10120545" depart="3.00" departLane="1o_1" departPos="428.00" departSpeed="0.00" departDelay="1.00" arrival="127.00" arrivalLane="4i_0" arrivalPos="489.60" arrivalSpeed="14.99" duration="124.00" routeLength="560.08" waitingTime="68.00" waitingCount="2" stopTime="0.00" timeLoss="85.56" rerouteNo="0" devices="tripinfo_10120545" vType="car2" speedFactor="1.08" vaporized=""/>
    <tripinfo id="141890545" depart="69.00" departLane="4o_1" departPos="443.00" departSpeed="0.00" departDelay="54.00" arrival="133.00" arrivalLane="3i_0" arrivalPos="489.45" arrivalSpeed="9.72" duration="64.00" routeLength="556.85" waitingTime="0.00" waitingCount="0" stopTime="0.00" timeLoss="9.67" rerouteNo="0" devices="tripinfo_141890545" vType="car2" speedFactor="0.74" vaporized=""/>
    <tripinfo id="1060545" depart="10.00" departLane="1o_1" departPos="458.00" departSpeed="0.00" departDelay="8.00" arrival="134.00" arrivalLane="2i_1" arrivalPos="489.60" arrivalSpeed="14.02" duration="124.00" routeLength="541.85" waitingTime="74.00" waitingCount="1" stopTime="0.00" timeLoss="85.72" rerouteNo="0" devices="tripinfo_1060545" vType="car3" speedFactor="1.03" vaporized=""/>
    <tripinfo id="1080545" depart="2.00" departLane="1o_1" departPos="448.00" departSpeed="0.00" departDelay="0.00" arrival="135.00" arrivalLane="2i_0" arrivalPos="489.60" arrivalSpeed="11.60" duration="133.00" routeLength="551.85" waitingTime="75.00" waitingCount="1" stopTime="0.00" timeLoss="85.06" rerouteNo="0" devices="tripinfo_1080545" vType="sedan3" speedFactor="0.85" vaporized=""/>
    <tripinfo id="10140545" depart="3.00" departLane="1o_1" departPos="418.00" departSpeed="0.00" departDelay="1.00" arrival="135.00" arrivalLane="2i_1" arrivalPos="489.60" arrivalSpeed="15.92" duration="132.00" routeLength="581.85" waitingTime="74.00" waitingCount="1" stopTime="0.00" timeLoss="95.92" rerouteNo="0" devices="tripinfo_10140545" vType="sedan3" speedFactor="1.17" vaporized=""/>
    <tripinfo id="1050545" depart="9.00" departLane="1o_1" departPos="463.00" departSpeed="0.00" departDelay="7.00" arrival="137.00" arrivalLane="2i_0" arrivalPos="489.60" arrivalSpeed="11.42" duration="128.00" routeLength="536.85" waitingTime="74.00" waitingCount="1" stopTime="0.00" timeLoss="83.70" rerouteNo="0" devices="tripinfo_1050545" vType="car2" speedFactor="0.88" vaporized=""/>
    <tripinfo id="10290545" depart="10.00" departLane="1o_0" departPos="343.00" departSpeed="0.00" departDelay="8.00" arrival="137.00" arrivalLane="2i_1" arrivalPos="489.60" arrivalSpeed="15.85" duration="127.00" routeLength="656.85" waitingTime="60.00" waitingCount="2" stopTime="0.00" timeLoss="87.24" rerouteNo="0" devices="tripinfo_10290545" vType="sedan" speedFactor="1.20" vaporized=""/>
    <tripinfo id="10180545" depart="10.00" departLane="1o_0" departPos="398.00" departSpeed="0.00" departDelay="8.00" arrival="138.00" arrivalLane="4i_1" arrivalPos="489.60" arrivalSpeed="13.98" duration="128.00" routeLength="590.08" waitingTime="62.00" waitingCount="2" stopTime="0.00" timeLoss="85.00" rerouteNo="0" devices="tripinfo_10180545" vType="sedan" speedFactor="1.02" vaporized=""/>
    <tripinfo id="10210545" depart="10.00" departLane="1o_0" departPos="383.00" departSpeed="0.00" departDelay="8.00" arrival="140.00" arrivalLane="4i_1" arrivalPos="489.60" arrivalSpeed="16.88" duration="130.00" routeLength="605.08" waitingTime="61.00" waitingCount="2" stopTime="0.00" timeLoss="93.84" rerouteNo="0" devices="tripinfo_10210545" vType="sedan3" speedFactor="1.26" vaporized=""/>
    <tripinfo id="10100545" depart="5.00" departLane="1o_0" departPos="438.00" departSpeed="0.00" departDelay="3.00" arrival="141.00" arrivalLane="4i_0" arrivalPos="489.60" arrivalSpeed="10.93" duration="136.00" routeLength="550.08" waitingTime="67.00" waitingCount="2" stopTime="0.00" timeLoss="86.03" rerouteNo="0" devices="tripinfo_10100545" vType="car2" speedFactor="0.80" vaporized=""/>
    <tripinfo id="10150545" depart="5.00" departLane="1o_0" departPos="413.00" departSpeed="0.00" departDelay="3.00" arrival="141.00" arrivalLane="3i_0" arrivalPos="489.45" arrivalSpeed="14.09" duration="136.00" routeLength="587.89" waitingTime="75.00" waitingCount="2" stopTime="0.00" timeLoss="93.67" rerouteNo="0" devices="tripinfo_10150545" vType="car3" speedFactor="1.02" vaporized=""/>
    <tripinfo id="10240545" depart="10.00" departLane="1o_0" departPos="368.00" departSpeed="0.00" departDelay="8.00" arrival="141.00" arrivalLane="2i_1" arrivalPos="489.60" arrivalSpeed="17.02" duration="131.00" routeLength="631.85" waitingTime="71.00" waitingCount="1" stopTime="0.00" timeLoss="93.93" rerouteNo="0" devices="tripinfo_10240545" vType="sedan3" speedFactor="1.24" vaporized=""/>