<?xml version="1.0" encoding="UTF-8"?>

<!-- generated on 04/30/20 11:16:10 by Eclipse SUMO GUI Version 1.4.0
<configuration xmlns:xsi="http://www.w3.org/2001/XMLSchema-instance" xsi:noNamespaceSchemaLocation="http://sumo.dlr.de/xsd/sumoConfiguration.xsd">

    <input>
        <net-file value="C:\Program%20Files%20(x86)\Eclipse\Sumo\doc\tutorial\traci_tls\data\cross.net.xml"/>
        <route-files value="C:\Program%20Files%20(x86)\Eclipse\Sumo\doc\tutorial\traci_tls\data\cross.rou.xml"/>
        <additional-files value="C:\Program%20Files%20(x86)\Eclipse\Sumo\doc\tutorial\traci_tls\data\cross.add.xml"/>
    </input>

    <output>
        <summary-output value="C:\Program%20Files%20(x86)\Eclipse\Sumo\doc\tutorial\traci_tls\data\summary.xml"/>
        <tripinfo-output value="C:\Program%20Files%20(x86)\Eclipse\Sumo\doc\tutorial\traci_tls\data\tripinfo.xml"/>
    </output>

    <time>
        <begin value="0"/>
    </time>

    <report>
        <verbose value="true"/>
        <no-step-log value="true"/>
    </report>

</configuration>
-->

<tripinfos xmlns:xsi="http://www.w3.org/2001/XMLSchema-instance" xsi:noNamespaceSchemaLocation="http://sumo.dlr.de/xsd/tripinfo_file.xsd">
    <tripinfo id="mixed5.4" depart="24.00" departLane="54o_1" departPos="2.30" departSpeed="0.00" departDelay="0.00" arrival="81.00" arrivalLane="52i_1" arrivalPos="10.00" arrivalSpeed="20.32" duration="57.00" routeLength="1006.13" waitingTime="0.00" waitingCount="0" stopTime="0.00" timeLoss="10.87" rerouteNo="0" devices="tripinfo_mixed5.4" vType="motorcycle2" speedFactor="1.62" vaporized=""/>
    <tripinfo id="mixed5.1" depart="6.00" departLane="54o_0" departPos="2.30" departSpeed="0.00" departDelay="0.00" arrival="83.00" arrivalLane="53i_0" arrivalPos="13.46" arrivalSpeed="18.04" duration="77.00" routeLength="1021.41" waitingTime="0.00" waitingCount="0" stopTime="0.00" timeLoss="22.69" rerouteNo="0" devices="tripinfo_mixed5.1" vType="motorcycle2" speedFactor="1.36" vaporized=""/>
    <tripinfo id="mixed0.13" depart="23.00" departLane="53o_1" departPos="5.10" departSpeed="0.00" departDelay="-0.40" arrival="91.00" arrivalLane="54i_0" arrivalPos="10.00" arrivalSpeed="16.71" duration="68.00" routeLength="1018.61" waitingTime="0.00" waitingCount="0" stopTime="0.00" timeLoss="9.80" rerouteNo="0" devices="tripinfo_mixed0.13" vType="car3" speedFactor="1.26" vaporized=""/>
    <tripinfo id="mixed0.14" depart="25.00" departLane="53o_1" departPos="2.30" departSpeed="0.00" departDelay="-0.20" arrival="92.00" arrivalLane="51i_0" arrivalPos="15.16" arrivalSpeed="18.52" duration="67.00" routeLength="1014.86" waitingTime="0.00" waitingCount="0" stopTime="0.00" timeLoss="17.20" rerouteNo="0" devices="tripinfo_mixed0.14" vType="motorcycle3" speedFactor="1.49" vaporized=""/>
    <tripinfo id="mixed0.9" depart="16.00" departLane="53o_1" departPos="12.10" departSpeed="0.00" departDelay="-0.20" arrival="96.00" arrivalLane="54i_0" arrivalPos="10.00" arrivalSpeed="15.22" duration="80.00" routeLength="1011.61" waitingTime="0.00" waitingCount="0" stopTime="0.00" timeLoss="14.81" rerouteNo="0" devices="tripinfo_mixed0.9" vType="bus3" speedFactor="1.12" vaporized=""/>
    <tripinfo id="mixed5.0" depart="1.00" departLane="54o_0" departPos="7.20" departSpeed="0.00" departDelay="1.00" arrival="98.00" arrivalLane="52i_0" arrivalPos="10.00" arrivalSpeed="11.32" duration="97.00" routeLength="1001.23" waitingTime="0.00" waitingCount="0" stopTime="0.00" timeLoss="9.06" rerouteNo="0" devices="tripinfo_mixed5.0" vType="truck2" speedFactor="0.83" vaporized=""/>
    <tripinfo id="mixed0.8" depart="14.00" departLane="53o_0" departPos="7.20" departSpeed="0.00" departDelay="-0.40" arrival="104.00" arrivalLane="54i_0" arrivalPos="10.00" arrivalSpeed="12.67" duration="90.00" routeLength="1016.51" waitingTime="0.00" waitingCount="0" stopTime="0.00" timeLoss="11.42" rerouteNo="0" devices="tripinfo_mixed0.8" vType="truck3" speedFactor="0.94" vaporized=""/>
    <tripinfo id="mixed0.0" depart="0.00" departLane="54o_1" departPos="10.00" departSpeed="0.00" departDelay="0.00" arrival="105.00" arrivalLane="53i_0" arrivalPos="13.46" arrivalSpeed="10.46" duration="105.00" routeLength="1013.71" waitingTime="0.00" waitingCount="0" stopTime="0.00" timeLoss="8.28" rerouteNo="0" devices="tripinfo_mixed0.0" vType="bus3" speedFactor="0.76" vaporized=""/>
    <tripinfo id="mixed5.2" depart="13.00" departLane="54o_1" departPos="5.10" departSpeed="0.00" departDelay="1.00" arrival="108.00" arrivalLane="51i_0" arrivalPos="15.16" arrivalSpeed="15.02" duration="95.00" routeLength="1021.51" waitingTime="11.00" waitingCount="1" stopTime="0.00" timeLoss="25.72" rerouteNo="0" devices="tripinfo_mixed5.2" vType="car2" speedFactor="1.08" vaporized=""/>
    <tripinfo id="mixed5.7" depart="42.00" departLane="54o_0" departPos="2.30" departSpeed="0.00" departDelay="0.00" arrival="108.00" arrivalLane="52i_0" arrivalPos="10.00" arrivalSpeed="16.24" duration="66.00" routeLength="1006.13" waitingTime="0.00" waitingCount="0" stopTime="0.00" timeLoss="6.90" rerouteNo="0" devices="tripinfo_mixed5.7" vType="motorcycle2" speedFactor="1.25" vaporized=""/>
    <tripinfo id="mixed0.6" depart="10.00" departLane="54o_0" departPos="5.10" departSpeed="0.00" departDelay="-0.80" arrival="110.00" arrivalLane="53i_0" arrivalPos="13.46" arrivalSpeed="10.51" duration="100.00" routeLength="1018.61" waitingTime="0.00" waitingCount="0" stopTime="0.00" timeLoss="7.90" rerouteNo="0" devices="tripinfo_mixed0.6" vType="car3" speedFactor="0.80" vaporized=""/>
    <tripinfo id="mixed5.3" depart="18.00" departLane="54o_1" departPos="2.30" departSpeed="0.00" departDelay="0.00" arrival="110.00" arrivalLane="51i_0" arrivalPos="15.16" arrivalSpeed="14.32" duration="92.00" routeLength="1024.31" waitingTime="9.00" waitingCount="1" stopTime="0.00" timeLoss="24.98" rerouteNo="0" devices="tripinfo_mixed5.3" vType="motorcycle2" speedFactor="1.12" vaporized=""/>
    <tripinfo id="mixed5.6" depart="36.00" departLane="54o_0" departPos="5.10" departSpeed="0.00" departDelay="0.00" arrival="116.00" arrivalLane="52i_0" arrivalPos="10.00" arrivalSpeed="14.91" duration="80.00" routeLength="1003.33" waitingTime="0.00" waitingCount="0" stopTime="0.00" timeLoss="11.37" rerouteNo="0" devices="tripinfo_mixed5.6" vType="car2" speedFactor="1.08" vaporized=""/>
    <tripinfo id="mixed0.22" depart="39.00" departLane="54o_0" departPos="2.20" departSpeed="0.00" departDelay="-0.60" arrival="118.00" arrivalLane="53i_0" arrivalPos="13.46" arrivalSpeed="14.80" duration="79.00" routeLength="1021.51" waitingTime="0.00" waitingCount="0" stopTime="0.00" timeLoss="10.66" rerouteNo="0" devices="tripinfo_mixed0.22" vType="moped3" speedFactor="1.08" vaporized=""/>
    <tripinfo id="mixed3.0" depart="45.00" departLane="54o_0" departPos="2.20" departSpeed="0.00" departDelay="0.00" arrival="119.00" arrivalLane="53i_1" arrivalPos="13.46" arrivalSpeed="16.43" duration="74.00" routeLength="1021.51" waitingTime="0.00" waitingCount="0" stopTime="0.00" timeLoss="12.58" rerouteNo="0" devices="tripinfo_mixed3.0" vType="moped" speedFactor="1.40" vaporized=""/>
    <tripinfo id="mixed5.8" depart="49.00" departLane="54o_1" departPos="5.10" departSpeed="0.00" departDelay="1.00" arrival="125.00" arrivalLane="53i_0" arrivalPos="13.46" arrivalSpeed="14.47" duration="76.00" routeLength="1018.61" waitingTime="0.00" waitingCount="0" stopTime="0.00" timeLoss="5.03" rerouteNo="0" devices="tripinfo_mixed5.8" vType="car2" speedFactor="1.05" vaporized=""/>
    <tripinfo id="mixed0.32" depart="57.00" departLane="54o_1" departPos="5.10" departSpeed="0.00" departDelay="-0.60" arrival="130.00" arrivalLane="53i_1" arrivalPos="13.46" arrivalSpeed="15.36" duration="73.00" routeLength="1018.61" waitingTime="0.00" waitingCount="0" stopTime="0.00" timeLoss="6.64" rerouteNo="0" devices="tripinfo_mixed0.32" vType="car3" speedFactor="1.11" vaporized=""/>
    <tripinfo id="mixed0.31" depart="55.00" departLane="54o_0" departPos="5.10" departSpeed="0.00" departDelay="-0.80" arrival="131.00" arrivalLane="53i_0" arrivalPos="13.46" arrivalSpeed="14.43" duration="76.00" routeLength="1018.61" waitingTime="0.00" waitingCount="0" stopTime="0.00" timeLoss="5.28" rerouteNo="0" devices="tripinfo_mixed0.31" vType="car3" speedFactor="1.04" vaporized=""/>
    <tripinfo id="mixed0.33" depart="59.00" departLane="54o_1" departPos="5.10" departSpeed="0.00" departDelay="-0.40" arrival="132.00" arrivalLane="53i_1" arrivalPos="13.46" arrivalSpeed="16.80" duration="73.00" routeLength="1018.61" waitingTime="0.00" waitingCount="0" stopTime="0.00" timeLoss="12.74" rerouteNo="0" devices="tripinfo_mixed0.33" vType="car3" speedFactor="1.24" vaporized=""/>
    <tripinfo id="mixed0.4" depart="7.00" departLane="51o_0" departPos="2.30" departSpeed="0.00" departDelay="-0.20" arrival="134.00" arrivalLane="54i_0" arrivalPos="10.00" arrivalSpeed="7.93" duration="127.00" routeLength="1011.33" waitingTime="0.00" waitingCount="0" stopTime="0.00" timeLoss="20.54" rerouteNo="0" devices="tripinfo_mixed0.4" vType="motorcycle3" speedFactor="0.69" vaporized=""/>
    <tripinfo id="mixed1.1" depart="30.00" departLane="51o_1" departPos="2.30" departSpeed="0.00" departDelay="-0.20" arrival="136.00" arrivalLane="54i_0" arrivalPos="10.00" arrivalSpeed="19.23" duration="106.00" routeLength="1011.33" waitingTime="24.00" waitingCount="1" stopTime="0.00" timeLoss="52.67" rerouteNo="0" devices="tripinfo_mixed1.1" vType="motorcycle1" speedFactor="1.41" vaporized=""/>
    <tripinfo id="mixed5.5" depart="30.00" departLane="54o_0" departPos="2.30" departSpeed="0.00" departDelay="0.00" arrival="142.00" arrivalLane="51i_0" arrivalPos="15.16" arrivalSpeed="10.45" duration="112.00" routeLength="1024.31" waitingTime="0.00" waitingCount="0" stopTime="0.00" timeLoss="13.12" rerouteNo="0" devices="tripinfo_mixed5.5" vType="motorcycle2" speedFactor="0.76" vaporized=""/>
    <tripinfo id="mixed1.3" depart="44.00" departLane="51o_0" departPos="2.30" departSpeed="0.00" departDelay="-0.60" arrival="143.00" arrivalLane="52i_1" arrivalPos="10.00" arrivalSpeed="14.98" duration="99.00" routeLength="1023.10" waitingTime="22.00" waitingCount="1" stopTime="0.00" timeLoss="36.95" rerouteNo="0" devices="tripinfo_mixed1.3" vType="motorcycle1" speedFactor="1.19" vaporized=""/>
    <tripinfo id="mixed0.15" depart="27.00" departLane="51o_1" departPos="2.30" departSpeed="0.00" departDelay="0.00" arrival="145.00" arrivalLane="52i_0" arrivalPos="10.00" arrivalSpeed="11.59" duration="118.00" routeLength="1023.10" waitingTime="27.00" waitingCount="1" stopTime="0.00" timeLoss="42.58" rerouteNo="0" devices="tripinfo_mixed0.15" vType="motorcycle3" speedFactor="0.98" vaporized=""/>
    <tripinfo id="mixed0.10" depart="18.00" departLane="51o_1" departPos="2.20" departSpeed="0.00" departDelay="0.00" arrival="147.00" arrivalLane="53i_0" arrivalPos="13.46" arrivalSpeed="14.32" duration="129.00" routeLength="1027.90" waitingTime="35.00" waitingCount="1" stopTime="0.00" timeLoss="56.85" rerouteNo="0" devices="tripinfo_mixed0.10" vType="moped3" speedFactor="1.04" vaporized=""/>
    <tripinfo id="mixed1.7" depart="74.00" departLane="51o_1" departPos="2.30" departSpeed="0.00" departDelay="0.60" arrival="152.00" arrivalLane="54i_1" arrivalPos="10.00" arrivalSpeed="19.84" duration="78.00" routeLength="1011.33" waitingTime="0.00" waitingCount="0" stopTime="0.00" timeLoss="30.45" rerouteNo="0" devices="tripinfo_mixed1.7" vType="motorcycle1" speedFactor="1.58" vaporized=""/>
    <tripinfo id="mixed0.27" depart="48.00" departLane="51o_1" departPos="7.20" departSpeed="0.00" departDelay="-0.60" arrival="154.00" arrivalLane="52i_1" arrivalPos="10.00" arrivalSpeed="13.36" duration="106.00" routeLength="1018.20" waitingTime="12.00" waitingCount="1" stopTime="0.00" timeLoss="28.97" rerouteNo="0" devices="tripinfo_mixed0.27" vType="truck3" speedFactor="0.96" vaporized=""/>
    <tripinfo id="mixed1.0" depart="23.00" departLane="51o_1" departPos="5.10" departSpeed="0.00" departDelay="0.00" arrival="155.00" arrivalLane="52i_0" arrivalPos="10.00" arrivalSpeed="9.77" duration="132.00" routeLength="1020.30" waitingTime="26.00" waitingCount="1" stopTime="0.00" timeLoss="38.65" rerouteNo="0" devices="tripinfo_mixed1.0" vType="car1" speedFactor="0.79" vaporized=""/>
    <tripinfo id="mixed0.29" depart="52.00" departLane="51o_0" departPos="7.20" departSpeed="0.00" departDelay="-0.20" arrival="156.00" arrivalLane="54i_0" arrivalPos="10.00" arrivalSpeed="13.45" duration="104.00" routeLength="1006.43" waitingTime="5.00" waitingCount="1" stopTime="0.00" timeLoss="29.18" rerouteNo="0" devices="tripinfo_mixed0.29" vType="truck3" speedFactor="0.99" vaporized=""/>
    <tripinfo id="mixed0.25" depart="45.00" departLane="51o_0" departPos="2.20" departSpeed="0.00" departDelay="0.00" arrival="157.00" arrivalLane="52i_1" arrivalPos="10.00" arrivalSpeed="13.85" duration="112.00" routeLength="1023.20" waitingTime="5.00" waitingCount="1" stopTime="0.00" timeLoss="38.38" rerouteNo="0" devices="tripinfo_mixed0.25" vType="moped3" speedFactor="1.01" vaporized=""/>
    <tripinfo id="mixed0.28" depart="50.00" departLane="51o_0" departPos="2.30" departSpeed="0.00" departDelay="-0.40" arrival="157.00" arrivalLane="52i_0" arrivalPos="10.00" arrivalSpeed="17.87" duration="107.00" routeLength="1023.10" waitingTime="9.00" waitingCount="1" stopTime="0.00" timeLoss="56.42" rerouteNo="0" devices="tripinfo_mixed0.28" vType="motorcycle3" speedFactor="1.48" vaporized=""/>
    <tripinfo id="mixed1.4" depart="51.00" departLane="51o_1" departPos="2.20" departSpeed="0.00" departDelay="-0.80" arrival="158.00" arrivalLane="52i_1" arrivalPos="10.00" arrivalSpeed="13.36" duration="107.00" routeLength="1023.20" waitingTime="8.00" waitingCount="1" stopTime="0.00" timeLoss="32.59" rerouteNo="0" devices="tripinfo_mixed1.4" vType="moped1" speedFactor="0.99" vaporized=""/>
    <tripinfo id="mixed1.2" depart="38.00" departLane="51o_1" departPos="5.10" departSpeed="0.00" departDelay="0.60" arrival="160.00" arrivalLane="53i_0" arrivalPos="13.46" arrivalSpeed="11.02" duration="122.00" routeLength="1025.00" waitingTime="14.00" waitingCount="1" stopTime="0.00" timeLoss="29.22" rerouteNo="0" devices="tripinfo_mixed1.2" vType="car1" speedFactor="0.80" vaporized=""/>
    <tripinfo id="mixed1.5" depart="59.00" departLane="51o_1" departPos="5.10" departSpeed="0.00" departDelay="0.00" arrival="160.00" arrivalLane="52i_1" arrivalPos="10.00" arrivalSpeed="14.62" duration="101.00" routeLength="1020.30" waitingTime="8.00" waitingCount="1" stopTime="0.00" timeLoss="31.69" rerouteNo="0" devices="tripinfo_mixed1.5" vType="car1" speedFactor="1.06" vaporized=""/>
    <tripinfo id="mixed0.35" depart="63.00" departLane="51o_1" departPos="5.10" departSpeed="0.00" departDelay="0.00" arrival="162.00" arrivalLane="53i_1" arrivalPos="13.46" arrivalSpeed="14.30" duration="99.00" routeLength="1025.00" waitingTime="7.00" waitingCount="1" stopTime="0.00" timeLoss="26.46" rerouteNo="0" devices="tripinfo_mixed0.35" vType="car3" speedFactor="1.03" vaporized=""/>
    <tripinfo id="mixed3.5" depart="64.00" departLane="51o_0" departPos="2.30" departSpeed="0.00" departDelay="1.00" arrival="162.00" arrivalLane="52i_1" arrivalPos="10.00" arrivalSpeed="16.88" duration="98.00" routeLength="1023.10" waitingTime="8.00" waitingCount="1" stopTime="0.00" timeLoss="41.78" rerouteNo="0" devices="tripinfo_mixed3.5" vType="motorcycle" speedFactor="1.33" vaporized=""/>
    <tripinfo id="mixed0.7" depart="12.00" departLane="51o_1" departPos="2.20" departSpeed="0.00" departDelay="-0.60" arrival="164.00" arrivalLane="53i_0" arrivalPos="13.46" arrivalSpeed="9.57" duration="152.00" routeLength="1027.90" waitingTime="31.00" waitingCount="1" stopTime="0.00" timeLoss="45.75" rerouteNo="0" devices="tripinfo_mixed0.7" vType="moped3" speedFactor="0.71" vaporized=""/>
    <tripinfo id="mixed1.8" depart="80.00" departLane="51o_1" departPos="12.10" departSpeed="0.00" departDelay="-0.60" arrival="164.00" arrivalLane="52i_1" arrivalPos="10.00" arrivalSpeed="15.17" duration="84.00" routeLength="1013.30" waitingTime="0.00" waitingCount="0" stopTime="0.00" timeLoss="17.04" rerouteNo="0" devices="tripinfo_mixed1.8" vType="bus1" speedFactor="1.10" vaporized=""/>
    <tripinfo id="mixed1.10" depart="95.00" departLane="51o_1" departPos="5.10" departSpeed="0.00" departDelay="0.00" arrival="164.00" arrivalLane="54i_1" arrivalPos="10.00" arrivalSpeed="16.43" duration="69.00" routeLength="1008.53" waitingTime="0.00" waitingCount="0" stopTime="0.00" timeLoss="7.89" rerouteNo="0" devices="tripinfo_mixed1.10" vType="sedan1" speedFactor="1.21" vaporized=""/>
    <tripinfo id="mixed3.3" depart="55.00" departLane="51o_0" departPos="5.10" departSpeed="0.00" departDelay="-0.80" arrival="166.00" arrivalLane="54i_0" arrivalPos="10.00" arrivalSpeed="11.38" duration="111.00" routeLength="1008.53" waitingTime="4.00" waitingCount="1" stopTime="0.00" timeLoss="24.37" rerouteNo="0" devices="tripinfo_mixed3.3" vType="sedan" speedFactor="0.86" vaporized=""/>
    <tripinfo id="mixed1.6" depart="68.00" departLane="51o_1" departPos="5.10" departSpeed="0.00" departDelay="1.80" arrival="167.00" arrivalLane="54i_0" arrivalPos="10.00" arrivalSpeed="11.96" duration="99.00" routeLength="1008.53" waitingTime="0.00" waitingCount="0" stopTime="0.00" timeLoss="15.88" rerouteNo="0" devices="tripinfo_mixed1.6" vType="sedan1" speedFactor="0.89" vaporized=""/>
    <tripinfo id="mixed0.37" depart="66.00" departLane="51o_0" departPos="2.30" departSpeed="0.00" departDelay="-0.60" arrival="168.00" arrivalLane="52i_1" arrivalPos="10.00" arrivalSpeed="10.16" duration="102.00" routeLength="1023.10" waitingTime="0.00" waitingCount="0" stopTime="0.00" timeLoss="21.64" rerouteNo="0" devices="tripinfo_mixed0.37" vType="motorcycle3" speedFactor="0.92" vaporized=""/>
    <tripinfo id="mixed0.21" depart="37.00" departLane="51o_0" departPos="12.10" departSpeed="0.00" departDelay="-0.80" arrival="169.00" arrivalLane="52i_0" arrivalPos="10.00" arrivalSpeed="8.68" duration="132.00" routeLength="1013.30" waitingTime="7.00" waitingCount="1" stopTime="0.00" timeLoss="20.39" rerouteNo="0" devices="tripinfo_mixed0.21" vType="bus3" speedFactor="0.66" vaporized=""/>
    <tripinfo id="mixed0.5" depart="9.00" departLane="52o_0" departPos="5.10" departSpeed="0.00" departDelay="0.00" arrival="170.00" arrivalLane="51i_0" arrivalPos="15.16" arrivalSpeed="17.15" duration="161.00" routeLength="1020.32" waitingTime="88.00" waitingCount="1" stopTime="0.00" timeLoss="102.02" rerouteNo="0" devices="tripinfo_mixed0.5" vType="car3" speedFactor="1.25" vaporized=""/>
    <tripinfo id="mixed1.9" depart="87.00" departLane="51o_1" departPos="5.10" departSpeed="0.00" departDelay="-0.80" arrival="170.00" arrivalLane="52i_1" arrivalPos="10.00" arrivalSpeed="12.41" duration="83.00" routeLength="1020.30" waitingTime="0.00" waitingCount="0" stopTime="0.00" timeLoss="7.97" rerouteNo="0" devices="tripinfo_mixed1.9" vType="car1" speedFactor="0.98" vaporized=""/>
    <tripinfo id="mixed0.52" depart="93.00" departLane="51o_1" departPos="5.10" departSpeed="0.00" departDelay="-0.60" arrival="172.00" arrivalLane="52i_1" arrivalPos="10.00" arrivalSpeed="13.93" duration="79.00" routeLength="1020.30" waitingTime="0.00" waitingCount="0" stopTime="0.00" timeLoss="5.81" rerouteNo="0" devices="tripinfo_mixed0.52" vType="car3" speedFactor="1.01" vaporized=""/>
    <tripinfo id="mixed0.20" depart="36.00" departLane="52o_0" departPos="2.30" departSpeed="0.00" departDelay="0.00" arrival="174.00" arrivalLane="51i_1" arrivalPos="15.16" arrivalSpeed="17.53" duration="138.00" routeLength="1023.12" waitingTime="62.00" waitingCount="2" stopTime="0.00" timeLoss="79.34" rerouteNo="0" devices="tripinfo_mixed0.20" vType="motorcycle3" speedFactor="1.26" vaporized=""/>
    <tripinfo id="mixed0.36" depart="66.00" departLane="51o_1" departPos="2.30" departSpeed="0.00" departDelay="1.20" arrival="174.00" arrivalLane="53i_0" arrivalPos="13.46" arrivalSpeed="11.16" duration="108.00" routeLength="1027.80" waitingTime="0.00" waitingCount="0" stopTime="0.00" timeLoss="24.68" rerouteNo="0" devices="tripinfo_mixed0.36" vType="motorcycle3" speedFactor="0.90" vaporized=""/>
    <tripinfo id="mixed0.40" depart="72.00" departLane="51o_1" departPos="5.10" departSpeed="0.00" departDelay="0.00" arrival="175.00" arrivalLane="52i_0" arrivalPos="10.00" arrivalSpeed="10.32" duration="103.00" routeLength="1020.30" waitingTime="0.00" waitingCount="0" stopTime="0.00" timeLoss="12.20" rerouteNo="0" devices="tripinfo_mixed0.40" vType="car3" speedFactor="0.81" vaporized=""/>
    <tripinfo id="mixed0.43" depart="77.00" departLane="52o_1" departPos="2.30" departSpeed="0.00" departDelay="-0.40" arrival="175.00" arrivalLane="53i_1" arrivalPos="13.46" arrivalSpeed="15.80" duration="98.00" routeLength="1009.64" waitingTime="28.00" waitingCount="1" stopTime="0.00" timeLoss="40.98" rerouteNo="0" devices="tripinfo_mixed0.43" vType="motorcycle3" speedFactor="1.29" vaporized=""/>
    <tripinfo id="mixed0.48" depart="86.00" departLane="52o_0" departPos="2.30" departSpeed="0.00" departDelay="-0.40" arrival="175.00" arrivalLane="51i_1" arrivalPos="15.16" arrivalSpeed="19.75" duration="89.00" routeLength="1023.12" waitingTime="19.00" waitingCount="1" stopTime="0.00" timeLoss="40.51" rerouteNo="0" devices="tripinfo_mixed0.48" vType="motorcycle3" speedFactor="1.52" vaporized=""/>
    <tripinfo id="mixed0.3" depart="5.00" departLane="52o_1" departPos="5.10" departSpeed="0.00" departDelay="-0.40" arrival="176.00" arrivalLane="51i_0" arrivalPos="15.16" arrivalSpeed="13.48" duration="171.00" routeLength="1020.32" waitingTime="88.00" waitingCount="1" stopTime="0.00" timeLoss="99.18" rerouteNo="0" devices="tripinfo_mixed0.3" vType="car3" speedFactor="1.03" vaporized=""/>
    <tripinfo id="mixed0.1" depart="1.00" departLane="52o_1" departPos="2.30" departSpeed="0.00" departDelay="-0.80" arrival="178.00" arrivalLane="53i_0" arrivalPos="13.46" arrivalSpeed="13.03" duration="177.00" routeLength="1009.64" waitingTime="89.00" waitingCount="1" stopTime="0.00" timeLoss="102.18" rerouteNo="0" devices="tripinfo_mixed0.1" vType="motorcycle3" speedFactor="0.98" vaporized=""/>
    <tripinfo id="mixed0.17" depart="30.00" departLane="52o_0" departPos="5.10" departSpeed="0.00" departDelay="-0.60" arrival="178.00" arrivalLane="51i_0" arrivalPos="15.16" arrivalSpeed="14.24" duration="148.00" routeLength="1020.32" waitingTime="63.00" waitingCount="1" stopTime="0.00" timeLoss="76.59" rerouteNo="0" devices="tripinfo_mixed0.17" vType="sedan3" speedFactor="1.04" vaporized=""/>
    <tripinfo id="mixed3.18" depart="109.00" departLane="52o_1" departPos="2.30" departSpeed="0.00" departDelay="-0.80" arrival="178.00" arrivalLane="51i_1" arrivalPos="15.16" arrivalSpeed="22.71" duration="69.00" routeLength="1023.12" waitingTime="3.00" waitingCount="1" stopTime="0.00" timeLoss="25.23" rerouteNo="0" devices="tripinfo_mixed3.18" vType="motorcycle" speedFactor="1.72" vaporized=""/>
    <tripinfo id="mixed0.58" depart="104.00" departLane="52o_1" departPos="2.30" departSpeed="0.00" departDelay="-0.40" arrival="179.00" arrivalLane="51i_1" arrivalPos="15.16" arrivalSpeed="23.59" duration="75.00" routeLength="1023.12" waitingTime="2.00" waitingCount="1" stopTime="0.00" timeLoss="34.73" rerouteNo="0" devices="tripinfo_mixed0.58" vType="motorcycle3" speedFactor="1.85" vaporized=""/>
    <tripinfo id="mixed0.39" depart="70.00" departLane="52o_0" departPos="5.10" departSpeed="0.00" departDelay="-0.20" arrival="181.00" arrivalLane="51i_0" arrivalPos="15.16" arrivalSpeed="14.90" duration="111.00" routeLength="1020.32" waitingTime="27.00" waitingCount="1" stopTime="0.00" timeLoss="44.81" rerouteNo="0" devices="tripinfo_mixed0.39" vType="car3" speedFactor="1.11" vaporized=""/>
    <tripinfo id="mixed1.11" depart="102.00" departLane="51o_1" departPos="12.10" departSpeed="0.00" departDelay="-0.20" arrival="182.00" arrivalLane="52i_0" arrivalPos="10.00" arrivalSpeed="13.89" duration="80.00" routeLength="1013.30" waitingTime="0.00" waitingCount="0" stopTime="0.00" timeLoss="8.48" rerouteNo="0" devices="tripinfo_mixed1.11" vType="bus1" speedFactor="1.02" vaporized=""/>
    <tripinfo id="mixed3.20" depart="117.00" departLane="51o_0" departPos="2.30" departSpeed="0.00" departDelay="0.00" arrival="186.00" arrivalLane="52i_1" arrivalPos="10.00" arrivalSpeed="19.26" duration="69.00" routeLength="1023.10" waitingTime="0.00" waitingCount="0" stopTime="0.00" timeLoss="19.64" rerouteNo="0" devices="tripinfo_mixed3.20" vType="motorcycle" speedFactor="1.51" vaporized=""/>
    <tripinfo id="mixed3.13" depart="92.00" departLane="52o_1" departPos="2.30" departSpeed="0.00" departDelay="0.20" arrival="188.00" arrivalLane="53i_0" arrivalPos="13.46" arrivalSpeed="15.12" duration="96.00" routeLength="1009.64" waitingTime="12.00" waitingCount="1" stopTime="0.00" timeLoss="30.26" rerouteNo="0" devices="tripinfo_mixed3.13" vType="motorcycle" speedFactor="1.13" vaporized=""/>
    <tripinfo id="mixed0.54" depart="98.00" departLane="52o_1" departPos="5.10" departSpeed="0.00" departDelay="0.80" arrival="188.00" arrivalLane="51i_0" arrivalPos="15.16" arrivalSpeed="14.15" duration="90.00" routeLength="1020.32" waitingTime="7.00" waitingCount="1" stopTime="0.00" timeLoss="21.26" rerouteNo="0" devices="tripinfo_mixed0.54" vType="car3" speedFactor="1.07" vaporized=""/>
    <tripinfo id="mixed3.16" depart="102.00" departLane="52o_1" departPos="5.10" departSpeed="0.00" departDelay="-0.60" arrival="192.00" arrivalLane="51i_1" arrivalPos="15.16" arrivalSpeed="16.66" duration="90.00" routeLength="1020.32" waitingTime="5.00" waitingCount="2" stopTime="0.00" timeLoss="31.53" rerouteNo="0" devices="tripinfo_mixed3.16" vType="sedan" speedFactor="1.26" vaporized=""/>
    <tripinfo id="mixed0.62" depart="111.00" departLane="51o_1" departPos="2.20" departSpeed="0.00" departDelay="-0.60" arrival="193.00" arrivalLane="52i_0" arrivalPos="10.00" arrivalSpeed="13.95" duration="82.00" routeLength="1023.20" waitingTime="0.00" waitingCount="0" stopTime="0.00" timeLoss="10.03" rerouteNo="0" devices="tripinfo_mixed0.62" vType="moped3" speedFactor="1.03" vaporized=""/>
    <tripinfo id="mixed0.46" depart="82.00" departLane="52o_1" departPos="5.10" departSpeed="0.00" departDelay="-0.80" arrival="196.00" arrivalLane="51i_0" arrivalPos="15.16" arrivalSpeed="14.48" duration="114.00" routeLength="1020.32" waitingTime="26.00" waitingCount="2" stopTime="0.00" timeLoss="43.25" rerouteNo="0" devices="tripinfo_mixed0.46" vType="sedan3" speedFactor="1.04" vaporized=""/>
    <tripinfo id="mixed.3" depart="130.00" departLane="52o_1" departPos="2.30" departSpeed="0.00" departDelay="-0.80" arrival="203.00" arrivalLane="51i_1" arrivalPos="15.16" arrivalSpeed="15.72" duration="73.00" routeLength="1023.12" waitingTime="0.00" waitingCount="0" stopTime="0.00" timeLoss="15.14" rerouteNo="0" devices="tripinfo_mixed.3" vType="motorcycle3" speedFactor="1.27" vaporized=""/>
    <tripinfo id="mixed.2" depart="127.00" departLane="52o_0" departPos="5.10" departSpeed="0.00" departDelay="-0.20" arrival="205.00" arrivalLane="51i_1" arrivalPos="15.16" arrivalSpeed="18.03" duration="78.00" routeLength="1020.32" waitingTime="0.00" waitingCount="0" stopTime="0.00" timeLoss="24.07" rerouteNo="0" devices="tripinfo_mixed.2" vType="car3" speedFactor="1.36" vaporized=""/>
    <tripinfo id="mixed0.63" depart="113.00" departLane="52o_0" departPos="7.20" departSpeed="0.00" departDelay="-0.40" arrival="208.00" arrivalLane="51i_0" arrivalPos="15.16" arrivalSpeed="13.59" duration="95.00" routeLength="1018.22" waitingTime="2.00" waitingCount="1" stopTime="0.00" timeLoss="21.15" rerouteNo="0" devices="tripinfo_mixed0.63" vType="truck3" speedFactor="1.00" vaporized=""/>
    <tripinfo id="mixed0.24" depart="43.00" departLane="52o_1" departPos="2.30" departSpeed="0.00" departDelay="-0.20" arrival="209.00" arrivalLane="54i_0" arrivalPos="10.00" arrivalSpeed="23.27" duration="166.00" routeLength="1019.09" waitingTime="86.00" waitingCount="3" stopTime="0.00" timeLoss="121.25" rerouteNo="0" devices="tripinfo_mixed0.24" vType="motorcycle3" speedFactor="1.68" vaporized=""/>
    <tripinfo id="mixed0.55" depart="100.00" departLane="52o_0" departPos="5.10" departSpeed="0.00" departDelay="1.00" arrival="210.00" arrivalLane="53i_0" arrivalPos="13.46" arrivalSpeed="14.46" duration="110.00" routeLength="1006.84" waitingTime="0.00" waitingCount="0" stopTime="0.00" timeLoss="41.05" rerouteNo="0" devices="tripinfo_mixed0.55" vType="sedan3" speedFactor="1.07" vaporized=""/>
    <tripinfo id="mixed0.12" depart="21.00" departLane="52o_1" departPos="5.10" departSpeed="0.00" departDelay="-0.60" arrival="211.00" arrivalLane="54i_0" arrivalPos="10.00" arrivalSpeed="13.94" duration="190.00" routeLength="1016.29" waitingTime="102.00" waitingCount="2" stopTime="0.00" timeLoss="117.18" rerouteNo="0" devices="tripinfo_mixed0.12" vType="car3" speedFactor="1.02" vaporized=""/>
    <tripinfo id="mixed0.64" depart="116.00" departLane="52o_0" departPos="5.10" departSpeed="0.00" departDelay="0.80" arrival="212.00" arrivalLane="51i_1" arrivalPos="15.16" arrivalSpeed="16.71" duration="96.00" routeLength="1020.32" waitingTime="10.00" waitingCount="2" stopTime="0.00" timeLoss="37.20" rerouteNo="0" devices="tripinfo_mixed0.64" vType="car3" speedFactor="1.25" vaporized=""/>
    <tripinfo id="mixed0.72" depart="130.00" departLane="52o_0" departPos="10.00" departSpeed="0.00" departDelay="0.40" arrival="217.00" arrivalLane="51i_0" arrivalPos="15.16" arrivalSpeed="13.25" duration="87.00" routeLength="1015.42" waitingTime="0.00" waitingCount="0" stopTime="0.00" timeLoss="10.38" rerouteNo="0" devices="tripinfo_mixed0.72" vType="bus3" speedFactor="0.96" vaporized=""/>